ITEM: TIMESTEP
0
ITEM: NUMBER OF ATOMS
4
ITEM: BOX BOUNDS ff ff ff
0 10
0 10
0 10
ITEM: ATOMS id type xu yu zu 
1 1 0.338412 7.69396 2.37413 
2 1 2.0317 6.85535 7.79522 
3 1 4.20921 4.11036 2.77659 
4 1 6.12082 2.62983 9.56393 
ITEM: TIMESTEP
100
ITEM: NUMBER OF ATOMS
4
ITEM: BOX BOUNDS ff ff ff
0 10
0 10
0 10
ITEM: ATOMS id type xu yu zu 
1 1 0.391633 7.72041 2.38388 
2 1 1.98097 6.891 7.74656 
3 1 4.18819 4.02163 2.82594 
4 1 6.14069 2.66979 9.53286 
ITEM: TIMESTEP
200
ITEM: NUMBER OF ATOMS
4
ITEM: BOX BOUNDS ff ff ff
0 10
0 10
0 10
ITEM: ATOMS id type xu yu zu 
1 1 0.445621 7.74877 2.35851 
2 1 1.94164 6.92723 7.70055 
3 1 4.16887 3.92768 2.87711 
4 1 6.15589 2.70985 9.51344 
ITEM: TIMESTEP
300
ITEM: NUMBER OF ATOMS
4
ITEM: BOX BOUNDS ff ff ff
0 10
0 10
0 10
ITEM: ATOMS id type xu yu zu 
1 1 0.507286 7.79307 2.31374 
2 1 1.93259 6.94899 7.66447 
3 1 4.14511 3.83191 2.92715 
4 1 6.15378 2.77056 9.49575 
ITEM: TIMESTEP
400
ITEM: NUMBER OF ATOMS
4
ITEM: BOX BOUNDS ff ff ff
0 10
0 10
0 10
ITEM: ATOMS id type xu yu zu 
1 1 0.589042 7.84502 2.2567 
2 1 1.92916 6.98285 7.61925 
3 1 4.12421 3.71147 2.96517 
4 1 6.13539 2.81225 9.505 
ITEM: TIMESTEP
500
ITEM: NUMBER OF ATOMS
4
ITEM: BOX BOUNDS ff ff ff
0 10
0 10
0 10
ITEM: ATOMS id type xu yu zu 
1 1 0.664845 7.89167 2.19376 
2 1 1.93584 7.02358 7.56786 
3 1 4.12046 3.56995 3.00025 
4 1 6.12942 2.83937 9.53181 
ITEM: TIMESTEP
600
ITEM: NUMBER OF ATOMS
4
ITEM: BOX BOUNDS ff ff ff
0 10
0 10
0 10
ITEM: ATOMS id type xu yu zu 
1 1 0.754487 7.93953 2.12359 
2 1 1.93443 7.06515 7.51607 
3 1 4.12908 3.4089 3.03348 
4 1 6.13331 2.87696 9.55684 
ITEM: TIMESTEP
700
ITEM: NUMBER OF ATOMS
4
ITEM: BOX BOUNDS ff ff ff
0 10
0 10
0 10
ITEM: ATOMS id type xu yu zu 
1 1 0.850458 7.98105 2.06901 
2 1 1.92768 7.10066 7.48415 
3 1 4.13791 3.24694 3.06548 
4 1 6.12997 2.92362 9.58944 
ITEM: TIMESTEP
800
ITEM: NUMBER OF ATOMS
4
ITEM: BOX BOUNDS ff ff ff
0 10
0 10
0 10
ITEM: ATOMS id type xu yu zu 
1 1 0.951089 7.99321 2.02117 
2 1 1.90436 7.15299 7.44632 
3 1 4.14794 3.0798 3.10084 
4 1 6.09824 2.95955 9.6117 
ITEM: TIMESTEP
900
ITEM: NUMBER OF ATOMS
4
ITEM: BOX BOUNDS ff ff ff
0 10
0 10
0 10
ITEM: ATOMS id type xu yu zu 
1 1 1.05758 7.99712 1.97651 
2 1 1.85888 7.19891 7.40237 
3 1 4.14778 2.91035 3.14202 
4 1 6.06434 2.98696 9.62469 
ITEM: TIMESTEP
1000
ITEM: NUMBER OF ATOMS
4
ITEM: BOX BOUNDS ff ff ff
0 10
0 10
0 10
ITEM: ATOMS id type xu yu zu 
1 1 1.17887 7.99432 1.92072 
2 1 1.78495 7.24329 7.36786 
3 1 4.13858 2.75421 3.20211 
4 1 6.04962 2.99916 9.61409 
ITEM: TIMESTEP
1100
ITEM: NUMBER OF ATOMS
4
ITEM: BOX BOUNDS ff ff ff
0 10
0 10
0 10
ITEM: ATOMS id type xu yu zu 
1 1 1.30039 7.97973 1.86001 
2 1 1.68993 7.26942 7.33187 
3 1 4.11391 2.62948 3.26446 
4 1 6.0465 3.01611 9.57588 
ITEM: TIMESTEP
1200
ITEM: NUMBER OF ATOMS
4
ITEM: BOX BOUNDS ff ff ff
0 10
0 10
0 10
ITEM: ATOMS id type xu yu zu 
1 1 1.41213 7.97286 1.82154 
2 1 1.58728 7.26981 7.29891 
3 1 4.07366 2.51706 3.30838 
4 1 6.04011 3.03134 9.53303 
ITEM: TIMESTEP
1300
ITEM: NUMBER OF ATOMS
4
ITEM: BOX BOUNDS ff ff ff
0 10
0 10
0 10
ITEM: ATOMS id type xu yu zu 
1 1 1.50946 7.94632 1.78991 
2 1 1.47151 7.2628 7.25953 
3 1 4.01826 2.3974 3.34462 
4 1 6.04348 3.0204 9.49806 
ITEM: TIMESTEP
1400
ITEM: NUMBER OF ATOMS
4
ITEM: BOX BOUNDS ff ff ff
0 10
0 10
0 10
ITEM: ATOMS id type xu yu zu 
1 1 1.59596 7.94714 1.76244 
2 1 1.36258 7.25876 7.24161 
3 1 3.95651 2.2695 3.37609 
4 1 6.05573 2.99521 9.46356 
ITEM: TIMESTEP
1500
ITEM: NUMBER OF ATOMS
4
ITEM: BOX BOUNDS ff ff ff
0 10
0 10
0 10
ITEM: ATOMS id type xu yu zu 
1 1 1.67936 7.96464 1.73509 
2 1 1.26646 7.27086 7.24181 
3 1 3.90471 2.15247 3.38604 
4 1 6.05729 2.95081 9.43063 
ITEM: TIMESTEP
1600
ITEM: NUMBER OF ATOMS
4
ITEM: BOX BOUNDS ff ff ff
0 10
0 10
0 10
ITEM: ATOMS id type xu yu zu 
1 1 1.77818 7.9927 1.71626 
2 1 1.1878 7.29013 7.24297 
3 1 3.86951 2.04352 3.39662 
4 1 6.07241 2.88819 9.38066 
ITEM: TIMESTEP
1700
ITEM: NUMBER OF ATOMS
4
ITEM: BOX BOUNDS ff ff ff
0 10
0 10
0 10
ITEM: ATOMS id type xu yu zu 
1 1 1.86738 8.01769 1.7059 
2 1 1.0974 7.32338 7.25087 
3 1 3.85151 1.9534 3.40829 
4 1 6.08124 2.82685 9.32249 
ITEM: TIMESTEP
1800
ITEM: NUMBER OF ATOMS
4
ITEM: BOX BOUNDS ff ff ff
0 10
0 10
0 10
ITEM: ATOMS id type xu yu zu 
1 1 1.9386 8.04406 1.6975 
2 1 1.01446 7.3619 7.27383 
3 1 3.81803 1.85414 3.42954 
4 1 6.06963 2.76044 9.26798 
ITEM: TIMESTEP
1900
ITEM: NUMBER OF ATOMS
4
ITEM: BOX BOUNDS ff ff ff
0 10
0 10
0 10
ITEM: ATOMS id type xu yu zu 
1 1 2.00352 8.06932 1.70309 
2 1 0.930059 7.3954 7.28279 
3 1 3.80503 1.77388 3.44082 
4 1 6.06019 2.70117 9.19902 
ITEM: TIMESTEP
2000
ITEM: NUMBER OF ATOMS
4
ITEM: BOX BOUNDS ff ff ff
0 10
0 10
0 10
ITEM: ATOMS id type xu yu zu 
1 1 2.06635 8.09596 1.70191 
2 1 0.83718 7.39437 7.27515 
3 1 3.79961 1.71436 3.45253 
4 1 6.051 2.63546 9.14544 
ITEM: TIMESTEP
2100
ITEM: NUMBER OF ATOMS
4
ITEM: BOX BOUNDS ff ff ff
0 10
0 10
0 10
ITEM: ATOMS id type xu yu zu 
1 1 2.12963 8.12516 1.70284 
2 1 0.7515 7.35793 7.26161 
3 1 3.79499 1.68369 3.47483 
4 1 6.04597 2.5663 9.10118 
ITEM: TIMESTEP
2200
ITEM: NUMBER OF ATOMS
4
ITEM: BOX BOUNDS ff ff ff
0 10
0 10
0 10
ITEM: ATOMS id type xu yu zu 
1 1 2.19111 8.15041 1.69017 
2 1 0.684682 7.31302 7.24065 
3 1 3.79712 1.65946 3.48977 
4 1 6.05037 2.50449 9.06286 
ITEM: TIMESTEP
2300
ITEM: NUMBER OF ATOMS
4
ITEM: BOX BOUNDS ff ff ff
0 10
0 10
0 10
ITEM: ATOMS id type xu yu zu 
1 1 2.24738 8.18425 1.6795 
2 1 0.629406 7.27722 7.22123 
3 1 3.81567 1.63649 3.50297 
4 1 6.0575 2.43491 9.03734 
ITEM: TIMESTEP
2400
ITEM: NUMBER OF ATOMS
4
ITEM: BOX BOUNDS ff ff ff
0 10
0 10
0 10
ITEM: ATOMS id type xu yu zu 
1 1 2.30366 8.21896 1.64801 
2 1 0.596815 7.24116 7.205 
3 1 3.82363 1.60382 3.49733 
4 1 6.05889 2.36789 8.99743 
ITEM: TIMESTEP
2500
ITEM: NUMBER OF ATOMS
4
ITEM: BOX BOUNDS ff ff ff
0 10
0 10
0 10
ITEM: ATOMS id type xu yu zu 
1 1 2.36848 8.27714 1.61363 
2 1 0.551455 7.18864 7.19423 
3 1 3.81528 1.57156 3.48908 
4 1 6.06127 2.30557 8.96034 
ITEM: TIMESTEP
2600
ITEM: NUMBER OF ATOMS
4
ITEM: BOX BOUNDS ff ff ff
0 10
0 10
0 10
ITEM: ATOMS id type xu yu zu 
1 1 2.4428 8.33867 1.59358 
2 1 0.515994 7.13819 7.19314 
3 1 3.80019 1.5192 3.48884 
4 1 6.07811 2.22343 8.92398 
ITEM: TIMESTEP
2700
ITEM: NUMBER OF ATOMS
4
ITEM: BOX BOUNDS ff ff ff
0 10
0 10
0 10
ITEM: ATOMS id type xu yu zu 
1 1 2.51385 8.42541 1.59566 
2 1 0.490197 7.08044 7.195 
3 1 3.7877 1.45247 3.48867 
4 1 6.07925 2.12637 8.88944 
ITEM: TIMESTEP
2800
ITEM: NUMBER OF ATOMS
4
ITEM: BOX BOUNDS ff ff ff
0 10
0 10
0 10
ITEM: ATOMS id type xu yu zu 
1 1 2.57075 8.50224 1.61142 
2 1 0.468919 7.02138 7.1972 
3 1 3.78959 1.36091 3.50081 
4 1 6.09015 2.03428 8.85261 
ITEM: TIMESTEP
2900
ITEM: NUMBER OF ATOMS
4
ITEM: BOX BOUNDS ff ff ff
0 10
0 10
0 10
ITEM: ATOMS id type xu yu zu 
1 1 2.62603 8.58328 1.63722 
2 1 0.450314 6.95002 7.19953 
3 1 3.80867 1.28631 3.49774 
4 1 6.10953 1.93938 8.80729 
ITEM: TIMESTEP
3000
ITEM: NUMBER OF ATOMS
4
ITEM: BOX BOUNDS ff ff ff
0 10
0 10
0 10
ITEM: ATOMS id type xu yu zu 
1 1 2.67276 8.67154 1.67776 
2 1 0.416512 6.86774 7.20771 
3 1 3.82561 1.21274 3.48254 
4 1 6.12937 1.83684 8.77062 
ITEM: TIMESTEP
3100
ITEM: NUMBER OF ATOMS
4
ITEM: BOX BOUNDS ff ff ff
0 10
0 10
0 10
ITEM: ATOMS id type xu yu zu 
1 1 2.72233 8.77218 1.7231 
2 1 0.40481 6.78746 7.20859 
3 1 3.83039 1.14783 3.48523 
4 1 6.13379 1.73424 8.74794 
ITEM: TIMESTEP
3200
ITEM: NUMBER OF ATOMS
4
ITEM: BOX BOUNDS ff ff ff
0 10
0 10
0 10
ITEM: ATOMS id type xu yu zu 
1 1 2.77314 8.86787 1.75051 
2 1 0.39757 6.69697 7.22706 
3 1 3.82472 1.07266 3.5039 
4 1 6.13893 1.62469 8.73325 
ITEM: TIMESTEP
3300
ITEM: NUMBER OF ATOMS
4
ITEM: BOX BOUNDS ff ff ff
0 10
0 10
0 10
ITEM: ATOMS id type xu yu zu 
1 1 2.81992 8.96353 1.77364 
2 1 0.377586 6.59364 7.25886 
3 1 3.80147 0.991962 3.51065 
4 1 6.15664 1.53262 8.73339 
ITEM: TIMESTEP
3400
ITEM: NUMBER OF ATOMS
4
ITEM: BOX BOUNDS ff ff ff
0 10
0 10
0 10
ITEM: ATOMS id type xu yu zu 
1 1 2.84576 9.0533 1.79606 
2 1 0.371953 6.50777 7.31243 
3 1 3.75864 0.910611 3.49771 
4 1 6.18137 1.46527 8.74478 
ITEM: TIMESTEP
3500
ITEM: NUMBER OF ATOMS
4
ITEM: BOX BOUNDS ff ff ff
0 10
0 10
0 10
ITEM: ATOMS id type xu yu zu 
1 1 2.86937 9.13908 1.82275 
2 1 0.361535 6.44655 7.39197 
3 1 3.71165 0.840552 3.4751 
4 1 6.19164 1.4061 8.74103 
ITEM: TIMESTEP
3600
ITEM: NUMBER OF ATOMS
4
ITEM: BOX BOUNDS ff ff ff
0 10
0 10
0 10
ITEM: ATOMS id type xu yu zu 
1 1 2.89093 9.21323 1.83151 
2 1 0.347881 6.40087 7.46925 
3 1 3.65647 0.768284 3.43297 
4 1 6.18948 1.34934 8.7035 
ITEM: TIMESTEP
3700
ITEM: NUMBER OF ATOMS
4
ITEM: BOX BOUNDS ff ff ff
0 10
0 10
0 10
ITEM: ATOMS id type xu yu zu 
1 1 2.90494 9.2868 1.84815 
2 1 0.350495 6.36803 7.55467 
3 1 3.61366 0.703512 3.40823 
4 1 6.18744 1.3019 8.66415 
ITEM: TIMESTEP
3800
ITEM: NUMBER OF ATOMS
4
ITEM: BOX BOUNDS ff ff ff
0 10
0 10
0 10
ITEM: ATOMS id type xu yu zu 
1 1 2.92938 9.37215 1.86845 
2 1 0.331651 6.33311 7.64897 
3 1 3.55428 0.64787 3.38855 
4 1 6.1767 1.25563 8.62928 
ITEM: TIMESTEP
3900
ITEM: NUMBER OF ATOMS
4
ITEM: BOX BOUNDS ff ff ff
0 10
0 10
0 10
ITEM: ATOMS id type xu yu zu 
1 1 2.95798 9.44607 1.88365 
2 1 0.305238 6.27309 7.74597 
3 1 3.48975 0.601818 3.35778 
4 1 6.1797 1.18632 8.60035 
ITEM: TIMESTEP
4000
ITEM: NUMBER OF ATOMS
4
ITEM: BOX BOUNDS ff ff ff
0 10
0 10
0 10
ITEM: ATOMS id type xu yu zu 
1 1 2.98587 9.51859 1.91303 
2 1 0.290795 6.19037 7.83826 
3 1 3.42575 0.557379 3.32618 
4 1 6.19321 1.11477 8.5669 
ITEM: TIMESTEP
4100
ITEM: NUMBER OF ATOMS
4
ITEM: BOX BOUNDS ff ff ff
0 10
0 10
0 10
ITEM: ATOMS id type xu yu zu 
1 1 3.00782 9.58884 1.94889 
2 1 0.289957 6.10111 7.90673 
3 1 3.35268 0.526651 3.30647 
4 1 6.21686 1.03665 8.52984 
ITEM: TIMESTEP
4200
ITEM: NUMBER OF ATOMS
4
ITEM: BOX BOUNDS ff ff ff
0 10
0 10
0 10
ITEM: ATOMS id type xu yu zu 
1 1 3.03484 9.67743 1.98467 
2 1 0.289478 6.0228 7.94831 
3 1 3.27372 0.484368 3.29382 
4 1 6.23201 0.962885 8.49099 
ITEM: TIMESTEP
4300
ITEM: NUMBER OF ATOMS
4
ITEM: BOX BOUNDS ff ff ff
0 10
0 10
0 10
ITEM: ATOMS id type xu yu zu 
1 1 3.05031 9.77949 2.02955 
2 1 0.283784 5.93985 7.9753 
3 1 3.21085 0.431346 3.27299 
4 1 6.24258 0.896319 8.45546 
ITEM: TIMESTEP
4400
ITEM: NUMBER OF ATOMS
4
ITEM: BOX BOUNDS ff ff ff
0 10
0 10
0 10
ITEM: ATOMS id type xu yu zu 
1 1 3.08605 9.87005 2.07786 
2 1 0.273508 5.85134 7.98692 
3 1 3.16385 0.399058 3.25867 
4 1 6.24095 0.853432 8.43952 
ITEM: TIMESTEP
4500
ITEM: NUMBER OF ATOMS
4
ITEM: BOX BOUNDS ff ff ff
0 10
0 10
0 10
ITEM: ATOMS id type xu yu zu 
1 1 3.13178 9.91933 2.13942 
2 1 0.263901 5.75815 7.97918 
3 1 3.12257 0.35666 3.24771 
4 1 6.23565 0.827766 8.42448 
ITEM: TIMESTEP
4600
ITEM: NUMBER OF ATOMS
4
ITEM: BOX BOUNDS ff ff ff
0 10
0 10
0 10
ITEM: ATOMS id type xu yu zu 
1 1 3.1955 9.96962 2.1923 
2 1 0.267542 5.6609 7.97347 
3 1 3.09197 0.31417 3.2496 
4 1 6.23509 0.823433 8.40646 
ITEM: TIMESTEP
4700
ITEM: NUMBER OF ATOMS
4
ITEM: BOX BOUNDS ff ff ff
0 10
0 10
0 10
ITEM: ATOMS id type xu yu zu 
1 1 3.25503 9.98219 2.20759 
2 1 0.25942 5.55774 7.9605 
3 1 3.084 0.270685 3.24634 
4 1 6.23767 0.847562 8.39994 
ITEM: TIMESTEP
4800
ITEM: NUMBER OF ATOMS
4
ITEM: BOX BOUNDS ff ff ff
0 10
0 10
0 10
ITEM: ATOMS id type xu yu zu 
1 1 3.29973 9.94785 2.20479 
2 1 0.264051 5.46493 7.93609 
3 1 3.06115 0.236898 3.24647 
4 1 6.24931 0.87342 8.38335 
ITEM: TIMESTEP
4900
ITEM: NUMBER OF ATOMS
4
ITEM: BOX BOUNDS ff ff ff
0 10
0 10
0 10
ITEM: ATOMS id type xu yu zu 
1 1 3.33675 9.93332 2.20284 
2 1 0.273443 5.37217 7.87693 
3 1 3.0486 0.211355 3.25418 
4 1 6.24972 0.895418 8.35599 
ITEM: TIMESTEP
5000
ITEM: NUMBER OF ATOMS
4
ITEM: BOX BOUNDS ff ff ff
0 10
0 10
0 10
ITEM: ATOMS id type xu yu zu 
1 1 3.35712 9.92054 2.18841 
2 1 0.284716 5.27754 7.79852 
3 1 3.04498 0.209033 3.25793 
4 1 6.24135 0.938795 8.29645 
ITEM: TIMESTEP
5100
ITEM: NUMBER OF ATOMS
4
ITEM: BOX BOUNDS ff ff ff
0 10
0 10
0 10
ITEM: ATOMS id type xu yu zu 
1 1 3.36464 9.90306 2.1548 
2 1 0.281647 5.20204 7.71546 
3 1 3.04993 0.208848 3.24022 
4 1 6.23992 0.980332 8.23035 
ITEM: TIMESTEP
5200
ITEM: NUMBER OF ATOMS
4
ITEM: BOX BOUNDS ff ff ff
0 10
0 10
0 10
ITEM: ATOMS id type xu yu zu 
1 1 3.37691 9.88133 2.10649 
2 1 0.291212 5.14471 7.63364 
3 1 3.05663 0.217557 3.22233 
4 1 6.23727 1.01948 8.15849 
ITEM: TIMESTEP
5300
ITEM: NUMBER OF ATOMS
4
ITEM: BOX BOUNDS ff ff ff
0 10
0 10
0 10
ITEM: ATOMS id type xu yu zu 
1 1 3.37997 9.85992 2.0311 
2 1 0.311389 5.09394 7.56794 
3 1 3.07044 0.21842 3.21072 
4 1 6.23984 1.08252 8.07469 
ITEM: TIMESTEP
5400
ITEM: NUMBER OF ATOMS
4
ITEM: BOX BOUNDS ff ff ff
0 10
0 10
0 10
ITEM: ATOMS id type xu yu zu 
1 1 3.38704 9.84532 1.95443 
2 1 0.313494 5.05978 7.49215 
3 1 3.08978 0.21829 3.18078 
4 1 6.23646 1.14547 7.97561 
ITEM: TIMESTEP
5500
ITEM: NUMBER OF ATOMS
4
ITEM: BOX BOUNDS ff ff ff
0 10
0 10
0 10
ITEM: ATOMS id type xu yu zu 
1 1 3.39739 9.8192 1.8681 
2 1 0.317423 5.05131 7.42762 
3 1 3.11356 0.184764 3.14171 
4 1 6.20318 1.21021 7.86863 
ITEM: TIMESTEP
5600
ITEM: NUMBER OF ATOMS
4
ITEM: BOX BOUNDS ff ff ff
0 10
0 10
0 10
ITEM: ATOMS id type xu yu zu 
1 1 3.42484 9.77379 1.77661 
2 1 0.327947 5.03639 7.37238 
3 1 3.12599 0.141978 3.11693 
4 1 6.17219 1.27088 7.77172 
ITEM: TIMESTEP
5700
ITEM: NUMBER OF ATOMS
4
ITEM: BOX BOUNDS ff ff ff
0 10
0 10
0 10
ITEM: ATOMS id type xu yu zu 
1 1 3.42934 9.73204 1.6854 
2 1 0.345702 5.00852 7.3182 
3 1 3.12103 0.118007 3.10946 
4 1 6.13255 1.33494 7.67671 
ITEM: TIMESTEP
5800
ITEM: NUMBER OF ATOMS
4
ITEM: BOX BOUNDS ff ff ff
0 10
0 10
0 10
ITEM: ATOMS id type xu yu zu 
1 1 3.4149 9.70089 1.59545 
2 1 0.378162 4.97285 7.26303 
3 1 3.11695 0.0845138 3.0946 
4 1 6.09458 1.37721 7.58986 
ITEM: TIMESTEP
5900
ITEM: NUMBER OF ATOMS
4
ITEM: BOX BOUNDS ff ff ff
0 10
0 10
0 10
ITEM: ATOMS id type xu yu zu 
1 1 3.40401 9.68301 1.50398 
2 1 0.408433 4.92999 7.20961 
3 1 3.10139 0.063449 3.07774 
4 1 6.05626 1.42558 7.50977 
ITEM: TIMESTEP
6000
ITEM: NUMBER OF ATOMS
4
ITEM: BOX BOUNDS ff ff ff
0 10
0 10
0 10
ITEM: ATOMS id type xu yu zu 
1 1 3.36472 9.67659 1.38603 
2 1 0.440936 4.91453 7.14088 
3 1 3.08841 0.0244196 3.0586 
4 1 6.02187 1.46604 7.44431 
ITEM: TIMESTEP
6100
ITEM: NUMBER OF ATOMS
4
ITEM: BOX BOUNDS ff ff ff
0 10
0 10
0 10
ITEM: ATOMS id type xu yu zu 
1 1 3.30273 9.68403 1.24641 
2 1 0.477545 4.89784 7.07897 
3 1 3.06192 0.0223375 3.04669 
4 1 5.97447 1.51807 7.39686 
ITEM: TIMESTEP
6200
ITEM: NUMBER OF ATOMS
4
ITEM: BOX BOUNDS ff ff ff
0 10
0 10
0 10
ITEM: ATOMS id type xu yu zu 
1 1 3.2324 9.72037 1.11574 
2 1 0.533537 4.87795 7.02489 
3 1 3.01448 0.0609843 3.02666 
4 1 5.9285 1.56518 7.35264 
ITEM: TIMESTEP
6300
ITEM: NUMBER OF ATOMS
4
ITEM: BOX BOUNDS ff ff ff
0 10
0 10
0 10
ITEM: ATOMS id type xu yu zu 
1 1 3.16554 9.76475 1.00485 
2 1 0.59967 4.86538 6.97601 
3 1 2.96239 0.109883 2.98737 
4 1 5.87705 1.5931 7.32574 
ITEM: TIMESTEP
6400
ITEM: NUMBER OF ATOMS
4
ITEM: BOX BOUNDS ff ff ff
0 10
0 10
0 10
ITEM: ATOMS id type xu yu zu 
1 1 3.12336 9.80816 0.882658 
2 1 0.6675 4.86059 6.92384 
3 1 2.90063 0.141565 2.95511 
4 1 5.82867 1.61055 7.29604 
ITEM: TIMESTEP
6500
ITEM: NUMBER OF ATOMS
4
ITEM: BOX BOUNDS ff ff ff
0 10
0 10
0 10
ITEM: ATOMS id type xu yu zu 
1 1 3.0871 9.84729 0.780183 
2 1 0.736074 4.87036 6.86293 
3 1 2.83202 0.172355 2.92778 
4 1 5.78332 1.63037 7.25504 
ITEM: TIMESTEP
6600
ITEM: NUMBER OF ATOMS
4
ITEM: BOX BOUNDS ff ff ff
0 10
0 10
0 10
ITEM: ATOMS id type xu yu zu 
1 1 3.06071 9.8811 0.680673 
2 1 0.80971 4.88617 6.808 
3 1 2.7694 0.172008 2.91923 
4 1 5.74157 1.65362 7.20878 
ITEM: TIMESTEP
6700
ITEM: NUMBER OF ATOMS
4
ITEM: BOX BOUNDS ff ff ff
0 10
0 10
0 10
ITEM: ATOMS id type xu yu zu 
1 1 3.04537 9.91293 0.597069 
2 1 0.896605 4.88832 6.76199 
3 1 2.71784 0.172278 2.91835 
4 1 5.70262 1.68145 7.15421 
ITEM: TIMESTEP
6800
ITEM: NUMBER OF ATOMS
4
ITEM: BOX BOUNDS ff ff ff
0 10
0 10
0 10
ITEM: ATOMS id type xu yu zu 
1 1 3.03147 9.92687 0.505039 
2 1 1.00795 4.88227 6.7319 
3 1 2.66154 0.15506 2.90571 
4 1 5.65217 1.69941 7.08255 
ITEM: TIMESTEP
6900
ITEM: NUMBER OF ATOMS
4
ITEM: BOX BOUNDS ff ff ff
0 10
0 10
0 10
ITEM: ATOMS id type xu yu zu 
1 1 3.03684 9.94364 0.390138 
2 1 1.13346 4.8645 6.70289 
3 1 2.61898 0.149588 2.88074 
4 1 5.59462 1.71627 7.00464 
ITEM: TIMESTEP
7000
ITEM: NUMBER OF ATOMS
4
ITEM: BOX BOUNDS ff ff ff
0 10
0 10
0 10
ITEM: ATOMS id type xu yu zu 
1 1 3.0659 9.95674 0.285178 
2 1 1.2513 4.83133 6.69061 
3 1 2.58061 0.128392 2.86732 
4 1 5.54149 1.76475 6.93379 
ITEM: TIMESTEP
7100
ITEM: NUMBER OF ATOMS
4
ITEM: BOX BOUNDS ff ff ff
0 10
0 10
0 10
ITEM: ATOMS id type xu yu zu 
1 1 3.11906 9.95197 0.201843 
2 1 1.35056 4.78298 6.68888 
3 1 2.53175 0.101491 2.87056 
4 1 5.4884 1.80392 6.88866 
ITEM: TIMESTEP
7200
ITEM: NUMBER OF ATOMS
4
ITEM: BOX BOUNDS ff ff ff
0 10
0 10
0 10
ITEM: ATOMS id type xu yu zu 
1 1 3.14902 9.95279 0.108985 
2 1 1.45595 4.73755 6.68857 
3 1 2.46815 0.0642931 2.87781 
4 1 5.42495 1.85917 6.85833 
ITEM: TIMESTEP
7300
ITEM: NUMBER OF ATOMS
4
ITEM: BOX BOUNDS ff ff ff
0 10
0 10
0 10
ITEM: ATOMS id type xu yu zu 
1 1 3.17554 9.95989 0.00898036 
2 1 1.57927 4.69858 6.68093 
3 1 2.4032 0.0204436 2.87391 
4 1 5.34532 1.93252 6.83892 
ITEM: TIMESTEP
7400
ITEM: NUMBER OF ATOMS
4
ITEM: BOX BOUNDS ff ff ff
0 10
0 10
0 10
ITEM: ATOMS id type xu yu zu 
1 1 3.2017 9.97739 0.0906746 
2 1 1.70595 4.65611 6.68674 
3 1 2.33633 0.0174542 2.86231 
4 1 5.27043 1.99326 6.79912 
ITEM: TIMESTEP
7500
ITEM: NUMBER OF ATOMS
4
ITEM: BOX BOUNDS ff ff ff
0 10
0 10
0 10
ITEM: ATOMS id type xu yu zu 
1 1 3.20849 9.98794 0.183245 
2 1 1.83197 4.63185 6.70522 
3 1 2.26033 0.0681126 2.84568 
4 1 5.21457 2.06412 6.75323 
ITEM: TIMESTEP
7600
ITEM: NUMBER OF ATOMS
4
ITEM: BOX BOUNDS ff ff ff
0 10
0 10
0 10
ITEM: ATOMS id type xu yu zu 
1 1 3.21609 9.94008 0.2769 
2 1 1.95909 4.59667 6.71999 
3 1 2.19029 0.128813 2.83706 
4 1 5.16922 2.13991 6.71378 
ITEM: TIMESTEP
7700
ITEM: NUMBER OF ATOMS
4
ITEM: BOX BOUNDS ff ff ff
0 10
0 10
0 10
ITEM: ATOMS id type xu yu zu 
1 1 3.23222 9.89523 0.363547 
2 1 2.07917 4.55726 6.7356 
3 1 2.1403 0.193914 2.84351 
4 1 5.13956 2.217 6.68221 
ITEM: TIMESTEP
7800
ITEM: NUMBER OF ATOMS
4
ITEM: BOX BOUNDS ff ff ff
0 10
0 10
0 10
ITEM: ATOMS id type xu yu zu 
1 1 3.26691 9.84868 0.44613 
2 1 2.19254 4.51519 6.75724 
3 1 2.10317 0.245884 2.87081 
4 1 5.12674 2.27016 6.64508 
ITEM: TIMESTEP
7900
ITEM: NUMBER OF ATOMS
4
ITEM: BOX BOUNDS ff ff ff
0 10
0 10
0 10
ITEM: ATOMS id type xu yu zu 
1 1 3.28444 9.81797 0.535217 
2 1 2.30132 4.47093 6.77712 
3 1 2.07412 0.287794 2.91838 
4 1 5.12469 2.31605 6.58754 
ITEM: TIMESTEP
8000
ITEM: NUMBER OF ATOMS
4
ITEM: BOX BOUNDS ff ff ff
0 10
0 10
0 10
ITEM: ATOMS id type xu yu zu 
1 1 3.29057 9.79221 0.610913 
2 1 2.43133 4.44046 6.78907 
3 1 2.05372 0.31642 2.98058 
4 1 5.11744 2.37535 6.51456 
ITEM: TIMESTEP
8100
ITEM: NUMBER OF ATOMS
4
ITEM: BOX BOUNDS ff ff ff
0 10
0 10
0 10
ITEM: ATOMS id type xu yu zu 
1 1 3.28644 9.75546 0.677394 
2 1 2.57281 4.43017 6.79661 
3 1 2.01443 0.347796 3.03559 
4 1 5.11965 2.43102 6.4617 
ITEM: TIMESTEP
8200
ITEM: NUMBER OF ATOMS
4
ITEM: BOX BOUNDS ff ff ff
0 10
0 10
0 10
ITEM: ATOMS id type xu yu zu 
1 1 3.28641 9.70827 0.730205 
2 1 2.70633 4.42068 6.81551 
3 1 1.9706 0.386232 3.05876 
4 1 5.13168 2.47596 6.43012 
ITEM: TIMESTEP
8300
ITEM: NUMBER OF ATOMS
4
ITEM: BOX BOUNDS ff ff ff
0 10
0 10
0 10
ITEM: ATOMS id type xu yu zu 
1 1 3.29267 9.65219 0.793545 
2 1 2.85023 4.42014 6.82647 
3 1 1.93575 0.423613 3.08271 
4 1 5.13841 2.51029 6.42644 
ITEM: TIMESTEP
8400
ITEM: NUMBER OF ATOMS
4
ITEM: BOX BOUNDS ff ff ff
0 10
0 10
0 10
ITEM: ATOMS id type xu yu zu 
1 1 3.31105 9.5907 0.853499 
2 1 2.98769 4.40966 6.81952 
3 1 1.91885 0.464579 3.10196 
4 1 5.14256 2.51903 6.42983 
ITEM: TIMESTEP
8500
ITEM: NUMBER OF ATOMS
4
ITEM: BOX BOUNDS ff ff ff
0 10
0 10
0 10
ITEM: ATOMS id type xu yu zu 
1 1 3.35293 9.53434 0.905122 
2 1 3.11332 4.37567 6.82132 
3 1 1.91269 0.50174 3.10417 
4 1 5.14956 2.53664 6.43468 
ITEM: TIMESTEP
8600
ITEM: NUMBER OF ATOMS
4
ITEM: BOX BOUNDS ff ff ff
0 10
0 10
0 10
ITEM: ATOMS id type xu yu zu 
1 1 3.41128 9.4951 0.961602 
2 1 3.25492 4.32161 6.82172 
3 1 1.89525 0.541543 3.0755 
4 1 5.14475 2.5576 6.45052 
ITEM: TIMESTEP
8700
ITEM: NUMBER OF ATOMS
4
ITEM: BOX BOUNDS ff ff ff
0 10
0 10
0 10
ITEM: ATOMS id type xu yu zu 
1 1 3.45743 9.43694 1.01568 
2 1 3.39583 4.26321 6.8258 
3 1 1.86863 0.582174 3.04478 
4 1 5.148 2.56871 6.48382 
ITEM: TIMESTEP
8800
ITEM: NUMBER OF ATOMS
4
ITEM: BOX BOUNDS ff ff ff
0 10
0 10
0 10
ITEM: ATOMS id type xu yu zu 
1 1 3.49111 9.37063 1.03513 
2 1 3.52432 4.189 6.83109 
3 1 1.84599 0.630088 3.02998 
4 1 5.14919 2.57442 6.52838 
ITEM: TIMESTEP
8900
ITEM: NUMBER OF ATOMS
4
ITEM: BOX BOUNDS ff ff ff
0 10
0 10
0 10
ITEM: ATOMS id type xu yu zu 
1 1 3.519 9.31521 1.05971 
2 1 3.65007 4.13586 6.81578 
3 1 1.84161 0.66841 3.01543 
4 1 5.1482 2.57984 6.55651 
ITEM: TIMESTEP
9000
ITEM: NUMBER OF ATOMS
4
ITEM: BOX BOUNDS ff ff ff
0 10
0 10
0 10
ITEM: ATOMS id type xu yu zu 
1 1 3.55356 9.27844 1.09874 
2 1 3.76194 4.09083 6.80458 
3 1 1.84113 0.721937 2.98956 
4 1 5.1256 2.58902 6.59296 
ITEM: TIMESTEP
9100
ITEM: NUMBER OF ATOMS
4
ITEM: BOX BOUNDS ff ff ff
0 10
0 10
0 10
ITEM: ATOMS id type xu yu zu 
1 1 3.59641 9.2423 1.13463 
2 1 3.86587 4.05102 6.78744 
3 1 1.84441 0.774057 2.95111 
4 1 5.10499 2.59178 6.6304 
ITEM: TIMESTEP
9200
ITEM: NUMBER OF ATOMS
4
ITEM: BOX BOUNDS ff ff ff
0 10
0 10
0 10
ITEM: ATOMS id type xu yu zu 
1 1 3.64183 9.19632 1.17482 
2 1 3.94387 4.02664 6.7807 
3 1 1.84609 0.822509 2.90075 
4 1 5.10309 2.60524 6.65324 
ITEM: TIMESTEP
9300
ITEM: NUMBER OF ATOMS
4
ITEM: BOX BOUNDS ff ff ff
0 10
0 10
0 10
ITEM: ATOMS id type xu yu zu 
1 1 3.66058 9.12528 1.20672 
2 1 3.99944 4.00495 6.76428 
3 1 1.86152 0.870922 2.83859 
4 1 5.10098 2.63698 6.66357 
ITEM: TIMESTEP
9400
ITEM: NUMBER OF ATOMS
4
ITEM: BOX BOUNDS ff ff ff
0 10
0 10
0 10
ITEM: ATOMS id type xu yu zu 
1 1 3.68325 9.03529 1.22547 
2 1 4.03543 3.98709 6.75504 
3 1 1.86259 0.935593 2.784 
4 1 5.09533 2.67262 6.64125 
ITEM: TIMESTEP
9500
ITEM: NUMBER OF ATOMS
4
ITEM: BOX BOUNDS ff ff ff
0 10
0 10
0 10
ITEM: ATOMS id type xu yu zu 
1 1 3.72769 8.95089 1.23106 
2 1 4.08568 3.97414 6.74778 
3 1 1.86384 0.998521 2.7356 
4 1 5.11547 2.71748 6.5982 
ITEM: TIMESTEP
9600
ITEM: NUMBER OF ATOMS
4
ITEM: BOX BOUNDS ff ff ff
0 10
0 10
0 10
ITEM: ATOMS id type xu yu zu 
1 1 3.78008 8.87628 1.21499 
2 1 4.15853 3.98822 6.72646 
3 1 1.88696 1.06667 2.67321 
4 1 5.15656 2.76164 6.54115 
ITEM: TIMESTEP
9700
ITEM: NUMBER OF ATOMS
4
ITEM: BOX BOUNDS ff ff ff
0 10
0 10
0 10
ITEM: ATOMS id type xu yu zu 
1 1 3.81291 8.81324 1.18319 
2 1 4.23028 4.02805 6.72128 
3 1 1.93382 1.13777 2.62697 
4 1 5.21365 2.77587 6.47019 
ITEM: TIMESTEP
9800
ITEM: NUMBER OF ATOMS
4
ITEM: BOX BOUNDS ff ff ff
0 10
0 10
0 10
ITEM: ATOMS id type xu yu zu 
1 1 3.82452 8.76291 1.13503 
2 1 4.29479 4.10078 6.72549 
3 1 1.96831 1.23019 2.57863 
4 1 5.26558 2.77559 6.38887 
ITEM: TIMESTEP
9900
ITEM: NUMBER OF ATOMS
4
ITEM: BOX BOUNDS ff ff ff
0 10
0 10
0 10
ITEM: ATOMS id type xu yu zu 
1 1 3.83977 8.71994 1.08735 
2 1 4.3623 4.17705 6.68565 
3 1 1.99281 1.30569 2.53109 
4 1 5.33309 2.76535 6.31456 
ITEM: TIMESTEP
10000
ITEM: NUMBER OF ATOMS
4
ITEM: BOX BOUNDS ff ff ff
0 10
0 10
0 10
ITEM: ATOMS id type xu yu zu 
1 1 3.85223 8.70321 1.05267 
2 1 4.42791 4.24024 6.62744 
3 1 2.01316 1.36729 2.48436 
4 1 5.39898 2.7279 6.23633 
ITEM: TIMESTEP
10100
ITEM: NUMBER OF ATOMS
4
ITEM: BOX BOUNDS ff ff ff
0 10
0 10
0 10
ITEM: ATOMS id type xu yu zu 
1 1 3.83986 8.70444 1.00846 
2 1 4.48597 4.26065 6.56307 
3 1 2.03005 1.43089 2.42428 
4 1 5.43945 2.69463 6.14151 
ITEM: TIMESTEP
10200
ITEM: NUMBER OF ATOMS
4
ITEM: BOX BOUNDS ff ff ff
0 10
0 10
0 10
ITEM: ATOMS id type xu yu zu 
1 1 3.83404 8.70166 0.957221 
2 1 4.52265 4.26621 6.47458 
3 1 2.03994 1.49992 2.36907 
4 1 5.47461 2.66424 6.04861 
ITEM: TIMESTEP
10300
ITEM: NUMBER OF ATOMS
4
ITEM: BOX BOUNDS ff ff ff
0 10
0 10
0 10
ITEM: ATOMS id type xu yu zu 
1 1 3.83573 8.70898 0.914981 
2 1 4.5413 4.27129 6.38304 
3 1 2.02835 1.57947 2.33866 
4 1 5.51051 2.63053 5.97234 
ITEM: TIMESTEP
10400
ITEM: NUMBER OF ATOMS
4
ITEM: BOX BOUNDS ff ff ff
0 10
0 10
0 10
ITEM: ATOMS id type xu yu zu 
1 1 3.85341 8.70927 0.888119 
2 1 4.56185 4.26798 6.29796 
3 1 2.02031 1.67244 2.31697 
4 1 5.572 2.57921 5.90471 
ITEM: TIMESTEP
10500
ITEM: NUMBER OF ATOMS
4
ITEM: BOX BOUNDS ff ff ff
0 10
0 10
0 10
ITEM: ATOMS id type xu yu zu 
1 1 3.85371 8.71646 0.877226 
2 1 4.58547 4.27678 6.20006 
3 1 2.0198 1.77108 2.27557 
4 1 5.64445 2.50782 5.85187 
ITEM: TIMESTEP
10600
ITEM: NUMBER OF ATOMS
4
ITEM: BOX BOUNDS ff ff ff
0 10
0 10
0 10
ITEM: ATOMS id type xu yu zu 
1 1 3.85175 8.71899 0.859325 
2 1 4.60215 4.2785 6.10697 
3 1 2.0403 1.86274 2.23878 
4 1 5.71321 2.40973 5.81133 
ITEM: TIMESTEP
10700
ITEM: NUMBER OF ATOMS
4
ITEM: BOX BOUNDS ff ff ff
0 10
0 10
0 10
ITEM: ATOMS id type xu yu zu 
1 1 3.85716 8.7092 0.824325 
2 1 4.61653 4.27289 6.01698 
3 1 2.07149 1.94182 2.21733 
4 1 5.78565 2.31169 5.76998 
ITEM: TIMESTEP
10800
ITEM: NUMBER OF ATOMS
4
ITEM: BOX BOUNDS ff ff ff
0 10
0 10
0 10
ITEM: ATOMS id type xu yu zu 
1 1 3.86634 8.6901 0.76757 
2 1 4.61198 4.29162 5.94927 
3 1 2.07023 2.00271 2.18572 
4 1 5.8546 2.21747 5.73511 
ITEM: TIMESTEP
10900
ITEM: NUMBER OF ATOMS
4
ITEM: BOX BOUNDS ff ff ff
0 10
0 10
0 10
ITEM: ATOMS id type xu yu zu 
1 1 3.86932 8.6625 0.71605 
2 1 4.60215 4.31336 5.90971 
3 1 2.06004 2.04927 2.14389 
4 1 5.91491 2.11301 5.69294 
ITEM: TIMESTEP
11000
ITEM: NUMBER OF ATOMS
4
ITEM: BOX BOUNDS ff ff ff
0 10
0 10
0 10
ITEM: ATOMS id type xu yu zu 
1 1 3.87905 8.62748 0.679842 
2 1 4.60868 4.33254 5.8652 
3 1 2.04755 2.08575 2.11027 
4 1 5.95791 1.98784 5.64985 
ITEM: TIMESTEP
11100
ITEM: NUMBER OF ATOMS
4
ITEM: BOX BOUNDS ff ff ff
0 10
0 10
0 10
ITEM: ATOMS id type xu yu zu 
1 1 3.91093 8.59312 0.647146 
2 1 4.62693 4.35198 5.83088 
3 1 2.04619 2.11978 2.1005 
4 1 5.99508 1.8513 5.61215 
ITEM: TIMESTEP
11200
ITEM: NUMBER OF ATOMS
4
ITEM: BOX BOUNDS ff ff ff
0 10
0 10
0 10
ITEM: ATOMS id type xu yu zu 
1 1 3.96463 8.56535 0.597529 
2 1 4.63981 4.36789 5.80837 
3 1 2.05922 2.15838 2.10204 
4 1 6.02206 1.72302 5.54919 
ITEM: TIMESTEP
11300
ITEM: NUMBER OF ATOMS
4
ITEM: BOX BOUNDS ff ff ff
0 10
0 10
0 10
ITEM: ATOMS id type xu yu zu 
1 1 4.01528 8.54492 0.584593 
2 1 4.64615 4.39002 5.76992 
3 1 2.07592 2.19977 2.0993 
4 1 6.05931 1.60809 5.46295 
ITEM: TIMESTEP
11400
ITEM: NUMBER OF ATOMS
4
ITEM: BOX BOUNDS ff ff ff
0 10
0 10
0 10
ITEM: ATOMS id type xu yu zu 
1 1 4.06612 8.52329 0.588748 
2 1 4.65906 4.45479 5.70738 
3 1 2.10956 2.22018 2.10523 
4 1 6.08779 1.52523 5.38645 
ITEM: TIMESTEP
11500
ITEM: NUMBER OF ATOMS
4
ITEM: BOX BOUNDS ff ff ff
0 10
0 10
0 10
ITEM: ATOMS id type xu yu zu 
1 1 4.10259 8.50167 0.582897 
2 1 4.66741 4.53841 5.65204 
3 1 2.143 2.26447 2.12297 
4 1 6.10917 1.45726 5.32137 
ITEM: TIMESTEP
11600
ITEM: NUMBER OF ATOMS
4
ITEM: BOX BOUNDS ff ff ff
0 10
0 10
0 10
ITEM: ATOMS id type xu yu zu 
1 1 4.13946 8.49684 0.577472 
2 1 4.66872 4.61673 5.59004 
3 1 2.16454 2.31239 2.1454 
4 1 6.13984 1.37369 5.26197 
ITEM: TIMESTEP
11700
ITEM: NUMBER OF ATOMS
4
ITEM: BOX BOUNDS ff ff ff
0 10
0 10
0 10
ITEM: ATOMS id type xu yu zu 
1 1 4.18885 8.50727 0.558997 
2 1 4.69594 4.68355 5.51476 
3 1 2.19951 2.35223 2.17124 
4 1 6.1815 1.27689 5.21698 
ITEM: TIMESTEP
11800
ITEM: NUMBER OF ATOMS
4
ITEM: BOX BOUNDS ff ff ff
0 10
0 10
0 10
ITEM: ATOMS id type xu yu zu 
1 1 4.23174 8.52402 0.549644 
2 1 4.7151 4.75702 5.42721 
3 1 2.21879 2.38044 2.20885 
4 1 6.21464 1.19331 5.16879 
ITEM: TIMESTEP
11900
ITEM: NUMBER OF ATOMS
4
ITEM: BOX BOUNDS ff ff ff
0 10
0 10
0 10
ITEM: ATOMS id type xu yu zu 
1 1 4.26015 8.55722 0.53179 
2 1 4.72345 4.8266 5.34862 
3 1 2.22682 2.40628 2.27798 
4 1 6.26084 1.11716 5.12771 
ITEM: TIMESTEP
12000
ITEM: NUMBER OF ATOMS
4
ITEM: BOX BOUNDS ff ff ff
0 10
0 10
0 10
ITEM: ATOMS id type xu yu zu 
1 1 4.2957 8.58468 0.489582 
2 1 4.70456 4.8933 5.26975 
3 1 2.23636 2.44533 2.34119 
4 1 6.30949 1.047 5.12307 
ITEM: TIMESTEP
12100
ITEM: NUMBER OF ATOMS
4
ITEM: BOX BOUNDS ff ff ff
0 10
0 10
0 10
ITEM: ATOMS id type xu yu zu 
1 1 4.33621 8.60903 0.444374 
2 1 4.68842 4.95186 5.18963 
3 1 2.26386 2.47202 2.40951 
4 1 6.33841 0.991574 5.12302 
ITEM: TIMESTEP
12200
ITEM: NUMBER OF ATOMS
4
ITEM: BOX BOUNDS ff ff ff
0 10
0 10
0 10
ITEM: ATOMS id type xu yu zu 
1 1 4.37581 8.62426 0.408143 
2 1 4.66477 5.01556 5.12248 
3 1 2.27546 2.48791 2.46699 
4 1 6.35545 0.946115 5.13155 
ITEM: TIMESTEP
12300
ITEM: NUMBER OF ATOMS
4
ITEM: BOX BOUNDS ff ff ff
0 10
0 10
0 10
ITEM: ATOMS id type xu yu zu 
1 1 4.41732 8.64245 0.374039 
2 1 4.63573 5.07551 5.08322 
3 1 2.28251 2.50132 2.50309 
4 1 6.37233 0.905307 5.16614 
ITEM: TIMESTEP
12400
ITEM: NUMBER OF ATOMS
4
ITEM: BOX BOUNDS ff ff ff
0 10
0 10
0 10
ITEM: ATOMS id type xu yu zu 
1 1 4.47076 8.64475 0.352646 
2 1 4.61433 5.15466 5.02665 
3 1 2.29315 2.53175 2.53207 
4 1 6.4006 0.863419 5.19771 
ITEM: TIMESTEP
12500
ITEM: NUMBER OF ATOMS
4
ITEM: BOX BOUNDS ff ff ff
0 10
0 10
0 10
ITEM: ATOMS id type xu yu zu 
1 1 4.52497 8.63356 0.33811 
2 1 4.61328 5.24366 4.97272 
3 1 2.30323 2.55664 2.55712 
4 1 6.4063 0.8259 5.21908 
ITEM: TIMESTEP
12600
ITEM: NUMBER OF ATOMS
4
ITEM: BOX BOUNDS ff ff ff
0 10
0 10
0 10
ITEM: ATOMS id type xu yu zu 
1 1 4.56808 8.63481 0.329432 
2 1 4.63983 5.35395 4.93265 
3 1 2.30828 2.58228 2.55294 
4 1 6.4113 0.794914 5.23279 
ITEM: TIMESTEP
12700
ITEM: NUMBER OF ATOMS
4
ITEM: BOX BOUNDS ff ff ff
0 10
0 10
0 10
ITEM: ATOMS id type xu yu zu 
1 1 4.60204 8.62636 0.343174 
2 1 4.68587 5.47099 4.89618 
3 1 2.31296 2.60287 2.51532 
4 1 6.4275 0.770325 5.2538 
ITEM: TIMESTEP
12800
ITEM: NUMBER OF ATOMS
4
ITEM: BOX BOUNDS ff ff ff
0 10
0 10
0 10
ITEM: ATOMS id type xu yu zu 
1 1 4.64847 8.62459 0.355724 
2 1 4.74306 5.58834 4.86241 
3 1 2.33143 2.61317 2.46659 
4 1 6.43559 0.752365 5.28546 
ITEM: TIMESTEP
12900
ITEM: NUMBER OF ATOMS
4
ITEM: BOX BOUNDS ff ff ff
0 10
0 10
0 10
ITEM: ATOMS id type xu yu zu 
1 1 4.71615 8.60459 0.357887 